    -----------------------------------------------------------------------
          Psi4: An Open-Source Ab Initio Electronic Structure Package
                              Psi4 1.0rc45 Driver

                          Git: Rev {master} faae0ba 

    J. M. Turney, A. C. Simmonett, R. M. Parrish, E. G. Hohenstein,
    F. A. Evangelista, J. T. Fermann, B. J. Mintz, L. A. Burns, J. J. Wilke,
    M. L. Abrams, N. J. Russ, M. L. Leininger, C. L. Janssen, E. T. Seidl,
    W. D. Allen, H. F. Schaefer, R. A. King, E. F. Valeev, C. D. Sherrill,
    and T. D. Crawford, WIREs Comput. Mol. Sci. 2, 556-565 (2012)
    (doi: 10.1002/wcms.93)

                         Additional Contributions by
    A. E. DePrince, U. Bozkaya, A. Yu. Sokolov, D. G. A. Smith, R. Di Remigio,
    R. M. Richard, J. F. Gonthier, H. R. McAlexander, M. Saitow, and
    B. P. Pritchard
    -----------------------------------------------------------------------


    Psi4 started on: Fri Nov 11 10:44:23 2016

    Process ID:   7018
    PSI4DATADIR: /Users/jinmei/software/install/psi4/share/psi4
    Memory level set to 256.000 MB

  ==> Input File <==

--------------------------------------------------------------------------
#!  H2O

molecule h2o {

O          0.00000       -0.07579        0.00000
H          0.86681        0.60144        0.00000
H         -0.86681        0.60144        0.00000

units bohr
}

set {
  reference rhf
  basis sto-3g
  freeze_core false
}

thisenergy = energy('mp2')

--------------------------------------------------------------------------
    SCF Algorithm Type (re)set to DF.
    There are an even number of electrons - assuming singlet.
    Specify the multiplicity in the molecule input block.


*** tstart() called on Jinmeis-MBP.dhcp.lbnl.us
*** at Fri Nov 11 10:44:24 2016


         ---------------------------------------------------------
                                   SCF
            by Justin Turney, Rob Parrish, and Andy Simmonett
                              RHF Reference
                        1 Threads,    256 MiB Core
         ---------------------------------------------------------

  ==> Geometry <==

    Molecular point group: c2v
    Full point group: C2v

    Geometry (in Bohr), charge = 0, multiplicity = 1:

       Center              X                  Y                   Z               Mass       
    ------------   -----------------  -----------------  -----------------  -----------------
           O          0.000000000000     0.000000000000    -0.075792109626    15.994914619560
           H          0.866810000000     0.000000000000     0.601437890374     1.007825032070
           H         -0.866810000000    -0.000000000000     0.601437890374     1.007825032070

  Running in c2v symmetry.

  Rotational constants: A =     73.32501  B =     39.74946  C =     25.77620 [cm^-1]
  Rotational constants: A = 2198228.44789  B = 1191658.92860  C = 772750.91060 [MHz]
  Nuclear repulsion =   15.122281929438477

  Charge       = 0
  Multiplicity = 1
  Electrons    = 10
  Nalpha       = 5
  Nbeta        = 5

  ==> Algorithm <==

  SCF Algorithm Type is DF.
  DIIS enabled.
  MOM disabled.
  Fractional occupation disabled.
  Guess Type is CORE.
  Energy threshold   = 1.00e-08
  Density threshold  = 1.00e-08
  Integral threshold = 0.00e+00

  ==> Primary Basis <==

  Basis Set: STO-3G
    Number of shells: 5
    Number of basis function: 7
    Number of Cartesian functions: 7
    Spherical Harmonics?: true
    Max angular momentum: 1

  ==> Pre-Iterations <==

   -------------------------------------------------------
    Irrep   Nso     Nmo     Nalpha   Nbeta   Ndocc  Nsocc
   -------------------------------------------------------
     A1         4       4       0       0       0       0
     A2         0       0       0       0       0       0
     B1         2       2       0       0       0       0
     B2         1       1       0       0       0       0
   -------------------------------------------------------
    Total       7       7       5       5       5       0
   -------------------------------------------------------

  ==> Integral Setup <==

  ==> DFJK: Density-Fitted J/K Matrices <==

    J tasked:                  Yes
    K tasked:                  Yes
    wK tasked:                  No
    OpenMP threads:              1
    Integrals threads:           1
    Memory (MB):               183
    Algorithm:                Core
    Integral Cache:           NONE
    Schwarz Cutoff:          1E-12
    Fitting Condition:       1E-12

   => Auxiliary Basis Set <=

  Basis Set: 
    Number of shells: 30
    Number of basis function: 84
    Number of Cartesian functions: 96
    Spherical Harmonics?: true
    Max angular momentum: 3

  Minimum eigenvalue in the overlap matrix is 1.1674154782E-01.
  Using Symmetric Orthogonalization.
  SCF Guess: Core (One-Electron) Hamiltonian.

  ==> Iterations <==

                           Total Energy        Delta E     RMS |[F,P]|

   @DF-RHF iter   1:   -72.46728181140159   -7.24673e+01   3.32199e-01 
   @DF-RHF iter   2:   -73.98655870708724   -1.51928e+00   3.21369e-02 DIIS
   @DF-RHF iter   3:   -73.99576380643794   -9.20510e-03   8.16575e-04 DIIS
   @DF-RHF iter   4:   -73.99576987868150   -6.07224e-06   1.01146e-04 DIIS
   @DF-RHF iter   5:   -73.99577001344012   -1.34759e-07   9.77278e-06 DIIS
   @DF-RHF iter   6:   -73.99577001502851   -1.58839e-09   1.65752e-06 DIIS
   @DF-RHF iter   7:   -73.99577001505391   -2.53948e-11   1.20043e-08 DIIS
   @DF-RHF iter   8:   -73.99577001505391    0.00000e+00   1.58697e-11 DIIS

  ==> Post-Iterations <==

    Orbital Energies (a.u.)
    -----------------------

    Doubly Occupied:                                                      

       1A1   -20.340936     2A1    -1.592193     1B1    -0.874677  
       3A1    -0.541672     1B2    -0.495109  

    Virtual:                                                              

       4A1     0.981086     2B1     1.335864  

    Final Occupation by Irrep:
             A1    A2    B1    B2 
    DOCC [     3,    0,    1,    1 ]

  Energy converged.

  @DF-RHF Final Energy:   -73.99577001505391

   => Energetics <=

    Nuclear Repulsion Energy =             15.1222819294384774
    One-Electron Energy =                -130.5469313692831292
    Two-Electron Energy =                  41.4288794247907646
    DFT Exchange-Correlation Energy =       0.0000000000000000
    Empirical Dispersion Energy =           0.0000000000000000
    PCM Polarization Energy =               0.0000000000000000
    EFP Energy =                            0.0000000000000000
    Total Energy =                        -73.9957700150538926

    Alert: EFP and PCM quantities not currently incorporated into SCF psivars.
  Saving occupied orbitals to File 180.

*** tstop() called on Jinmeis-MBP.dhcp.lbnl.us at Fri Nov 11 10:44:24 2016
Module time:
	user time   =       0.12 seconds =       0.00 minutes
	system time =       0.00 seconds =       0.00 minutes
	total time  =          0 seconds =       0.00 minutes
Total time:
	user time   =       0.12 seconds =       0.00 minutes
	system time =       0.00 seconds =       0.00 minutes
	total time  =          0 seconds =       0.00 minutes


Properties will be evaluated at   0.000000,   0.000000,   0.000000 Bohr

Properties computed using the SCF density matrix

  Nuclear Dipole Moment: (a.u.)
     X:     0.0000      Y:     0.0000      Z:     0.5965

  Electronic Dipole Moment: (a.u.)
     X:     0.0000      Y:     0.0000      Z:     0.2108

  Dipole Moment: (a.u.)
     X:     0.0000      Y:     0.0000      Z:     0.8074     Total:     0.8074

  Dipole Moment: (Debye)
     X:     0.0000      Y:     0.0000      Z:     2.0521     Total:     2.0521


  //>>>>>>>>>>>>>>>>>>>>>>>>>>>>>>>>>>>//
  //               DFMP2               //
  //<<<<<<<<<<<<<<<<<<<<<<<<<<<<<<<<<<<//


*** tstart() called on Jinmeis-MBP.dhcp.lbnl.us
*** at Fri Nov 11 10:44:24 2016


*** tstop() called on Jinmeis-MBP.dhcp.lbnl.us at Fri Nov 11 10:44:24 2016
Module time:
	user time   =       0.04 seconds =       0.00 minutes
	system time =       0.00 seconds =       0.00 minutes
	total time  =          0 seconds =       0.00 minutes
Total time:
	user time   =       0.17 seconds =       0.00 minutes
	system time =       0.00 seconds =       0.00 minutes
	total time  =          0 seconds =       0.00 minutes
	 --------------------------------------------------------
	                          DF-MP2                         
	      2nd-Order Density-Fitted Moller-Plesset Theory     
	              RMP2 Wavefunction,   1 Threads             
	                                                         
	        Rob Parrish, Justin Turney, Andy Simmonett,      
	           Ed Hohenstein, and C. David Sherrill          
	 --------------------------------------------------------

   => Auxiliary Basis Set <=

  Basis Set: 
    Number of shells: 30
    Number of basis function: 84
    Number of Cartesian functions: 96
    Spherical Harmonics?: true
    Max angular momentum: 3

	 --------------------------------------------------------
	                 NBF =     7, NAUX =    84
	 --------------------------------------------------------
	   CLASS    FOCC     OCC    AOCC    AVIR     VIR    FVIR
	   PAIRS       0       5       5       2       2       0
	 --------------------------------------------------------

	-----------------------------------------------------------
	 ==================> DF-MP2 Energies <==================== 
	-----------------------------------------------------------
	 Reference Energy          =     -73.9957700150539068 [Eh]
	 Singles Energy            =      -0.0000000000000000 [Eh]
	 Same-Spin Energy          =      -0.0006359704162983 [Eh]
	 Opposite-Spin Energy      =      -0.0134418930863271 [Eh]
	 Correlation Energy        =      -0.0140778635026254 [Eh]
	 Total Energy              =     -74.0098478785565277 [Eh]
	-----------------------------------------------------------
	 ================> DF-SCS-MP2 Energies <================== 
	-----------------------------------------------------------
	 SCS Same-Spin Scale       =       0.3333333333333333 [-]
	 SCS Opposite-Spin Scale   =       1.2000000000000000 [-]
	 SCS Same-Spin Energy      =      -0.0002119901387661 [Eh]
	 SCS Opposite-Spin Energy  =      -0.0161302717035925 [Eh]
	 SCS Correlation Energy    =      -0.0163422618423586 [Eh]
	 SCS Total Energy          =     -74.0121122768962607 [Eh]
	-----------------------------------------------------------


*** Psi4 exiting successfully. Buy a developer a beer!
