    -----------------------------------------------------------------------
          Psi4: An Open-Source Ab Initio Electronic Structure Package
                              Psi4 1.0rc45 Driver

                          Git: Rev {master} faae0ba 

    J. M. Turney, A. C. Simmonett, R. M. Parrish, E. G. Hohenstein,
    F. A. Evangelista, J. T. Fermann, B. J. Mintz, L. A. Burns, J. J. Wilke,
    M. L. Abrams, N. J. Russ, M. L. Leininger, C. L. Janssen, E. T. Seidl,
    W. D. Allen, H. F. Schaefer, R. A. King, E. F. Valeev, C. D. Sherrill,
    and T. D. Crawford, WIREs Comput. Mol. Sci. 2, 556-565 (2012)
    (doi: 10.1002/wcms.93)

                         Additional Contributions by
    A. E. DePrince, U. Bozkaya, A. Yu. Sokolov, D. G. A. Smith, R. Di Remigio,
    R. M. Richard, J. F. Gonthier, H. R. McAlexander, M. Saitow, and
    B. P. Pritchard
    -----------------------------------------------------------------------


    Psi4 started on: Fri Nov 11 10:50:58 2016

    Process ID:   7087
    PSI4DATADIR: /Users/jinmei/software/install/psi4/share/psi4
    Memory level set to 256.000 MB

  ==> Input File <==

--------------------------------------------------------------------------
#!  H2O

molecule h2o {

O          0.00000       -0.07579        0.00000
H          0.86681        0.60144        0.00000
H         -0.86681        0.60144        0.00000

units bohr
}

set {
  reference rhf
  basis cc-pvdz
  freeze_core false
}

thisenergy = energy('mp2')

--------------------------------------------------------------------------
    SCF Algorithm Type (re)set to DF.
    There are an even number of electrons - assuming singlet.
    Specify the multiplicity in the molecule input block.


*** tstart() called on Jinmeis-MBP.dhcp.lbnl.us
*** at Fri Nov 11 10:50:58 2016


         ---------------------------------------------------------
                                   SCF
            by Justin Turney, Rob Parrish, and Andy Simmonett
                              RHF Reference
                        1 Threads,    256 MiB Core
         ---------------------------------------------------------

  ==> Geometry <==

    Molecular point group: c2v
    Full point group: C2v

    Geometry (in Bohr), charge = 0, multiplicity = 1:

       Center              X                  Y                   Z               Mass       
    ------------   -----------------  -----------------  -----------------  -----------------
           O          0.000000000000     0.000000000000    -0.075792109626    15.994914619560
           H          0.866810000000     0.000000000000     0.601437890374     1.007825032070
           H         -0.866810000000    -0.000000000000     0.601437890374     1.007825032070

  Running in c2v symmetry.

  Rotational constants: A =     73.32501  B =     39.74946  C =     25.77620 [cm^-1]
  Rotational constants: A = 2198228.44789  B = 1191658.92860  C = 772750.91060 [MHz]
  Nuclear repulsion =   15.122281929438477

  Charge       = 0
  Multiplicity = 1
  Electrons    = 10
  Nalpha       = 5
  Nbeta        = 5

  ==> Algorithm <==

  SCF Algorithm Type is DF.
  DIIS enabled.
  MOM disabled.
  Fractional occupation disabled.
  Guess Type is CORE.
  Energy threshold   = 1.00e-08
  Density threshold  = 1.00e-08
  Integral threshold = 0.00e+00

  ==> Primary Basis <==

  Basis Set: CC-PVDZ
    Number of shells: 12
    Number of basis function: 24
    Number of Cartesian functions: 25
    Spherical Harmonics?: true
    Max angular momentum: 2

  ==> Pre-Iterations <==

   -------------------------------------------------------
    Irrep   Nso     Nmo     Nalpha   Nbeta   Ndocc  Nsocc
   -------------------------------------------------------
     A1        11      11       0       0       0       0
     A2         2       2       0       0       0       0
     B1         7       7       0       0       0       0
     B2         4       4       0       0       0       0
   -------------------------------------------------------
    Total      24      24       5       5       5       0
   -------------------------------------------------------

  ==> Integral Setup <==

  ==> DFJK: Density-Fitted J/K Matrices <==

    J tasked:                  Yes
    K tasked:                  Yes
    wK tasked:                  No
    OpenMP threads:              1
    Integrals threads:           1
    Memory (MB):               183
    Algorithm:                Core
    Integral Cache:           NONE
    Schwarz Cutoff:          1E-12
    Fitting Condition:       1E-12

   => Auxiliary Basis Set <=

  Basis Set: 
    Number of shells: 42
    Number of basis function: 116
    Number of Cartesian functions: 131
    Spherical Harmonics?: true
    Max angular momentum: 3

  Minimum eigenvalue in the overlap matrix is 1.2037294443E-02.
  Using Symmetric Orthogonalization.
  SCF Guess: Core (One-Electron) Hamiltonian.

  ==> Iterations <==

                           Total Energy        Delta E     RMS |[F,P]|

    Occupation by irrep:
             A1    A2    B1    B2 
    DOCC [     3,    0,    2,    0 ]

   @DF-RHF iter   1:   -67.99187208817584   -6.79919e+01   3.33493e-01 
    Occupation by irrep:
             A1    A2    B1    B2 
    DOCC [     3,    0,    1,    1 ]

   @DF-RHF iter   2:   -69.60118346413284   -1.60931e+00   1.69521e-01 DIIS
   @DF-RHF iter   3:   -74.64829871385143   -5.04712e+00   9.74239e-02 DIIS
   @DF-RHF iter   4:   -75.18628195793157   -5.37983e-01   2.82382e-02 DIIS
   @DF-RHF iter   5:   -75.24123689916526   -5.49549e-02   2.14100e-03 DIIS
   @DF-RHF iter   6:   -75.24147539300039   -2.38494e-04   4.44591e-04 DIIS
   @DF-RHF iter   7:   -75.24148900058186   -1.36076e-05   4.57343e-05 DIIS
   @DF-RHF iter   8:   -75.24148929165143   -2.91070e-07   9.42857e-06 DIIS
   @DF-RHF iter   9:   -75.24148930156103   -9.90960e-09   5.05005e-07 DIIS
   @DF-RHF iter  10:   -75.24148930160760   -4.65690e-11   1.32670e-07 DIIS
   @DF-RHF iter  11:   -75.24148930160932   -1.71951e-12   1.06959e-08 DIIS
   @DF-RHF iter  12:   -75.24148930160929    2.84217e-14   6.41238e-10 DIIS

  ==> Post-Iterations <==

    Orbital Energies (a.u.)
    -----------------------

    Doubly Occupied:                                                      

       1A1   -20.493848     2A1    -1.630120     1B1    -0.957163  
       3A1    -0.640229     1B2    -0.543865  

    Virtual:                                                              

       4A1     0.225542     2B1     0.280838     5A1     1.020923  
       2B2     1.063173     3B1     1.077369     4B1     1.362883  
       6A1     1.417504     7A1     1.511782     1A2     1.641399  
       8A1     1.987795     3B2     1.991054     5B1     2.454573  
       6B1     3.401757     9A1     3.490718     4B2     3.646412  
       2A2     3.784072    10A1     3.933165     7B1     5.238570  
      11A1     5.717544  

    Final Occupation by Irrep:
             A1    A2    B1    B2 
    DOCC [     3,    0,    1,    1 ]

  Energy converged.

  @DF-RHF Final Energy:   -75.24148930160929

   => Energetics <=

    Nuclear Repulsion Energy =             15.1222819294384774
    One-Electron Energy =                -132.1970923621277620
    Two-Electron Energy =                  41.8333211310799982
    DFT Exchange-Correlation Energy =       0.0000000000000000
    Empirical Dispersion Energy =           0.0000000000000000
    PCM Polarization Energy =               0.0000000000000000
    EFP Energy =                            0.0000000000000000
    Total Energy =                        -75.2414893016092918


  Saving occupied orbitals to File 180.

*** tstop() called on Jinmeis-MBP.dhcp.lbnl.us at Fri Nov 11 10:50:58 2016
Module time:
	user time   =       0.14 seconds =       0.00 minutes
	system time =       0.01 seconds =       0.00 minutes
	total time  =          0 seconds =       0.00 minutes
Total time:
	user time   =       0.14 seconds =       0.00 minutes
	system time =       0.01 seconds =       0.00 minutes
	total time  =          0 seconds =       0.00 minutes


Properties will be evaluated at   0.000000,   0.000000,   0.000000 Bohr

Properties computed using the SCF density matrix

  Nuclear Dipole Moment: (a.u.)
     X:     0.0000      Y:     0.0000      Z:     0.5965

  Electronic Dipole Moment: (a.u.)
     X:     0.0000      Y:     0.0000      Z:     0.0635

  Dipole Moment: (a.u.)
     X:     0.0000      Y:     0.0000      Z:     0.6600     Total:     0.6600

  Dipole Moment: (Debye)
     X:     0.0000      Y:     0.0000      Z:     1.6776     Total:     1.6776


  //>>>>>>>>>>>>>>>>>>>>>>>>>>>>>>>>>>>//
  //               DFMP2               //
  //<<<<<<<<<<<<<<<<<<<<<<<<<<<<<<<<<<<//


*** tstart() called on Jinmeis-MBP.dhcp.lbnl.us
*** at Fri Nov 11 10:50:58 2016


*** tstop() called on Jinmeis-MBP.dhcp.lbnl.us at Fri Nov 11 10:50:58 2016
Module time:
	user time   =       0.03 seconds =       0.00 minutes
	system time =       0.00 seconds =       0.00 minutes
	total time  =          0 seconds =       0.00 minutes
Total time:
	user time   =       0.18 seconds =       0.00 minutes
	system time =       0.01 seconds =       0.00 minutes
	total time  =          0 seconds =       0.00 minutes
	 --------------------------------------------------------
	                          DF-MP2                         
	      2nd-Order Density-Fitted Moller-Plesset Theory     
	              RMP2 Wavefunction,   1 Threads             
	                                                         
	        Rob Parrish, Justin Turney, Andy Simmonett,      
	           Ed Hohenstein, and C. David Sherrill          
	 --------------------------------------------------------

   => Auxiliary Basis Set <=

  Basis Set: 
    Number of shells: 30
    Number of basis function: 84
    Number of Cartesian functions: 96
    Spherical Harmonics?: true
    Max angular momentum: 3

	 --------------------------------------------------------
	                 NBF =    24, NAUX =    84
	 --------------------------------------------------------
	   CLASS    FOCC     OCC    AOCC    AVIR     VIR    FVIR
	   PAIRS       0       5       5      19      19       0
	 --------------------------------------------------------

	-----------------------------------------------------------
	 ==================> DF-MP2 Energies <==================== 
	-----------------------------------------------------------
	 Reference Energy          =     -75.2414893016092918 [Eh]
	 Singles Energy            =      -0.0000000000000000 [Eh]
	 Same-Spin Energy          =      -0.0468487150637903 [Eh]
	 Opposite-Spin Energy      =      -0.1311571114251749 [Eh]
	 Correlation Energy        =      -0.1780058264889653 [Eh]
	 Total Energy              =     -75.4194951280982622 [Eh]
	-----------------------------------------------------------
	 ================> DF-SCS-MP2 Energies <================== 
	-----------------------------------------------------------
	 SCS Same-Spin Scale       =       0.3333333333333333 [-]
	 SCS Opposite-Spin Scale   =       1.2000000000000000 [-]
	 SCS Same-Spin Energy      =      -0.0156162383545968 [Eh]
	 SCS Opposite-Spin Energy  =      -0.1573885337102099 [Eh]
	 SCS Correlation Energy    =      -0.1730047720648067 [Eh]
	 SCS Total Energy          =     -75.4144940736740921 [Eh]
	-----------------------------------------------------------


*** Psi4 exiting successfully. Buy a developer a beer!
